+ 0.370586 /NodeList/5/DeviceList/0/$ns3::CsmaNetDevice/TxQueue/Enqueue ns3::EthernetHeader ( length/type=0x800, source=00:00:00:00:00:0a, destination=01:00:5e:00:00:09) ns3::Ipv4Header (tos 0x0 DSCP Default ECN Not-ECT ttl 1 id 0 protocol 17 offset (bytes) 0 flags [none] length: 52 10.0.4.2 > 224.0.0.9) ns3::UdpHeader (length: 32 520 > 520) ns3::RipHeader (command 1 | prefix 0.0.0.0/0 Metric 16 Tag 0 Next Hop 0.0.0.0) ns3::EthernetTrailer (fcs=0)
- 0.370586 /NodeList/5/DeviceList/0/$ns3::CsmaNetDevice/TxQueue/Dequeue ns3::EthernetHeader ( length/type=0x800, source=00:00:00:00:00:0a, destination=01:00:5e:00:00:09) ns3::Ipv4Header (tos 0x0 DSCP Default ECN Not-ECT ttl 1 id 0 protocol 17 offset (bytes) 0 flags [none] length: 52 10.0.4.2 > 224.0.0.9) ns3::UdpHeader (length: 32 520 > 520) ns3::RipHeader (command 1 | prefix 0.0.0.0/0 Metric 16 Tag 0 Next Hop 0.0.0.0) ns3::EthernetTrailer (fcs=0)
+ 0.370586 /NodeList/5/DeviceList/1/$ns3::CsmaNetDevice/TxQueue/Enqueue ns3::EthernetHeader ( length/type=0x800, source=00:00:00:00:00:0c, destination=01:00:5e:00:00:09) ns3::Ipv4Header (tos 0x0 DSCP Default ECN Not-ECT ttl 1 id 0 protocol 17 offset (bytes) 0 flags [none] length: 52 10.0.5.2 > 224.0.0.9) ns3::UdpHeader (length: 32 520 > 520) ns3::RipHeader (command 1 | prefix 0.0.0.0/0 Metric 16 Tag 0 Next Hop 0.0.0.0) ns3::EthernetTrailer (fcs=0)
- 0.370586 /NodeList/5/DeviceList/1/$ns3::CsmaNetDevice/TxQueue/Dequeue ns3::EthernetHeader ( length/type=0x800, source=00:00:00:00:00:0c, destination=01:00:5e:00:00:09) ns3::Ipv4Header (tos 0x0 DSCP Default ECN Not-ECT ttl 1 id 0 protocol 17 offset (bytes) 0 flags [none] length: 52 10.0.5.2 > 224.0.0.9) ns3::UdpHeader (length: 32 520 > 520) ns3::RipHeader (command 1 | prefix 0.0.0.0/0 Metric 16 Tag 0 Next Hop 0.0.0.0) ns3::EthernetTrailer (fcs=0)
+ 0.370586 /NodeList/5/DeviceList/3/$ns3::CsmaNetDevice/TxQueue/Enqueue ns3::EthernetHeader ( length/type=0x800, source=00:00:00:00:00:11, destination=01:00:5e:00:00:09) ns3::Ipv4Header (tos 0x0 DSCP Default ECN Not-ECT ttl 1 id 0 protocol 17 offset (bytes) 0 flags [none] length: 52 10.0.8.1 > 224.0.0.9) ns3::UdpHeader (length: 32 520 > 520) ns3::RipHeader (command 1 | prefix 0.0.0.0/0 Metric 16 Tag 0 Next Hop 0.0.0.0) ns3::EthernetTrailer (fcs=0)
- 0.370586 /NodeList/5/DeviceList/3/$ns3::CsmaNetDevice/TxQueue/Dequeue ns3::EthernetHeader ( length/type=0x800, source=00:00:00:00:00:11, destination=01:00:5e:00:00:09) ns3::Ipv4Header (tos 0x0 DSCP Default ECN Not-ECT ttl 1 id 0 protocol 17 offset (bytes) 0 flags [none] length: 52 10.0.8.1 > 224.0.0.9) ns3::UdpHeader (length: 32 520 > 520) ns3::RipHeader (command 1 | prefix 0.0.0.0/0 Metric 16 Tag 0 Next Hop 0.0.0.0) ns3::EthernetTrailer (fcs=0)
r 0.372698 /NodeList/4/DeviceList/2/$ns3::CsmaNetDevice/MacRx ns3::EthernetHeader ( length/type=0x800, source=00:00:00:00:00:0a, destination=01:00:5e:00:00:09) ns3::Ipv4Header (tos 0x0 DSCP Default ECN Not-ECT ttl 1 id 0 protocol 17 offset (bytes) 0 flags [none] length: 52 10.0.4.2 > 224.0.0.9) ns3::UdpHeader (length: 32 520 > 520) ns3::RipHeader (command 1 | prefix 0.0.0.0/0 Metric 16 Tag 0 Next Hop 0.0.0.0) ns3::EthernetTrailer (fcs=0)
r 0.372698 /NodeList/3/DeviceList/2/$ns3::CsmaNetDevice/MacRx ns3::EthernetHeader ( length/type=0x800, source=00:00:00:00:00:0c, destination=01:00:5e:00:00:09) ns3::Ipv4Header (tos 0x0 DSCP Default ECN Not-ECT ttl 1 id 0 protocol 17 offset (bytes) 0 flags [none] length: 52 10.0.5.2 > 224.0.0.9) ns3::UdpHeader (length: 32 520 > 520) ns3::RipHeader (command 1 | prefix 0.0.0.0/0 Metric 16 Tag 0 Next Hop 0.0.0.0) ns3::EthernetTrailer (fcs=0)
r 0.372698 /NodeList/6/DeviceList/1/$ns3::CsmaNetDevice/MacRx ns3::EthernetHeader ( length/type=0x800, source=00:00:00:00:00:11, destination=01:00:5e:00:00:09) ns3::Ipv4Header (tos 0x0 DSCP Default ECN Not-ECT ttl 1 id 0 protocol 17 offset (bytes) 0 flags [none] length: 52 10.0.8.1 > 224.0.0.9) ns3::UdpHeader (length: 32 520 > 520) ns3::RipHeader (command 1 | prefix 0.0.0.0/0 Metric 16 Tag 0 Next Hop 0.0.0.0) ns3::EthernetTrailer (fcs=0)
+ 0.372698 /NodeList/3/DeviceList/2/$ns3::CsmaNetDevice/TxQueue/Enqueue ns3::EthernetHeader ( length/type=0x806, source=00:00:00:00:00:0b, destination=ff:ff:ff:ff:ff:ff) ns3::ArpHeader (request source mac: 00-06-00:00:00:00:00:0b source ipv4: 10.0.5.1 dest ipv4: 10.0.5.2) Payload (size=18) ns3::EthernetTrailer (fcs=0)
- 0.372698 /NodeList/3/DeviceList/2/$ns3::CsmaNetDevice/TxQueue/Dequeue ns3::EthernetHeader ( length/type=0x806, source=00:00:00:00:00:0b, destination=ff:ff:ff:ff:ff:ff) ns3::ArpHeader (request source mac: 00-06-00:00:00:00:00:0b source ipv4: 10.0.5.1 dest ipv4: 10.0.5.2) Payload (size=18) ns3::EthernetTrailer (fcs=0)
+ 0.373698 /NodeList/4/DeviceList/2/$ns3::CsmaNetDevice/TxQueue/Enqueue ns3::EthernetHeader ( length/type=0x806, source=00:00:00:00:00:09, destination=ff:ff:ff:ff:ff:ff) ns3::ArpHeader (request source mac: 00-06-00:00:00:00:00:09 source ipv4: 10.0.4.1 dest ipv4: 10.0.4.2) Payload (size=18) ns3::EthernetTrailer (fcs=0)
- 0.373698 /NodeList/4/DeviceList/2/$ns3::CsmaNetDevice/TxQueue/Dequeue ns3::EthernetHeader ( length/type=0x806, source=00:00:00:00:00:09, destination=ff:ff:ff:ff:ff:ff) ns3::ArpHeader (request source mac: 00-06-00:00:00:00:00:09 source ipv4: 10.0.4.1 dest ipv4: 10.0.4.2) Payload (size=18) ns3::EthernetTrailer (fcs=0)
r 0.3748 /NodeList/5/DeviceList/1/$ns3::CsmaNetDevice/MacRx ns3::EthernetHeader ( length/type=0x806, source=00:00:00:00:00:0b, destination=ff:ff:ff:ff:ff:ff) ns3::ArpHeader (request source mac: 00-06-00:00:00:00:00:0b source ipv4: 10.0.5.1 dest ipv4: 10.0.5.2) Payload (size=18) ns3::EthernetTrailer (fcs=0)
+ 0.3748 /NodeList/5/DeviceList/1/$ns3::CsmaNetDevice/TxQueue/Enqueue ns3::EthernetHeader ( length/type=0x806, source=00:00:00:00:00:0c, destination=00:00:00:00:00:0b) ns3::ArpHeader (reply source mac: 00-06-00:00:00:00:00:0c source ipv4: 10.0.5.2 dest mac: 00-06-00:00:00:00:00:0b dest ipv4: 10.0.5.1) Payload (size=18) ns3::EthernetTrailer (fcs=0)
- 0.3748 /NodeList/5/DeviceList/1/$ns3::CsmaNetDevice/TxQueue/Dequeue ns3::EthernetHeader ( length/type=0x806, source=00:00:00:00:00:0c, destination=00:00:00:00:00:0b) ns3::ArpHeader (reply source mac: 00-06-00:00:00:00:00:0c source ipv4: 10.0.5.2 dest mac: 00-06-00:00:00:00:00:0b dest ipv4: 10.0.5.1) Payload (size=18) ns3::EthernetTrailer (fcs=0)
r 0.3758 /NodeList/5/DeviceList/0/$ns3::CsmaNetDevice/MacRx ns3::EthernetHeader ( length/type=0x806, source=00:00:00:00:00:09, destination=ff:ff:ff:ff:ff:ff) ns3::ArpHeader (request source mac: 00-06-00:00:00:00:00:09 source ipv4: 10.0.4.1 dest ipv4: 10.0.4.2) Payload (size=18) ns3::EthernetTrailer (fcs=0)
+ 0.3758 /NodeList/5/DeviceList/0/$ns3::CsmaNetDevice/TxQueue/Enqueue ns3::EthernetHeader ( length/type=0x806, source=00:00:00:00:00:0a, destination=00:00:00:00:00:09) ns3::ArpHeader (reply source mac: 00-06-00:00:00:00:00:0a source ipv4: 10.0.4.2 dest mac: 00-06-00:00:00:00:00:09 dest ipv4: 10.0.4.1) Payload (size=18) ns3::EthernetTrailer (fcs=0)
- 0.3758 /NodeList/5/DeviceList/0/$ns3::CsmaNetDevice/TxQueue/Dequeue ns3::EthernetHeader ( length/type=0x806, source=00:00:00:00:00:0a, destination=00:00:00:00:00:09) ns3::ArpHeader (reply source mac: 00-06-00:00:00:00:00:0a source ipv4: 10.0.4.2 dest mac: 00-06-00:00:00:00:00:09 dest ipv4: 10.0.4.1) Payload (size=18) ns3::EthernetTrailer (fcs=0)
r 0.376904 /NodeList/3/DeviceList/2/$ns3::CsmaNetDevice/MacRx ns3::EthernetHeader ( length/type=0x806, source=00:00:00:00:00:0c, destination=00:00:00:00:00:0b) ns3::ArpHeader (reply source mac: 00-06-00:00:00:00:00:0c source ipv4: 10.0.5.2 dest mac: 00-06-00:00:00:00:00:0b dest ipv4: 10.0.5.1) Payload (size=18) ns3::EthernetTrailer (fcs=0)
+ 0.376904 /NodeList/3/DeviceList/2/$ns3::CsmaNetDevice/TxQueue/Enqueue ns3::EthernetHeader ( length/type=0x800, source=00:00:00:00:00:0b, destination=00:00:00:00:00:0c) ns3::Ipv4Header (tos 0x0 DSCP Default ECN Not-ECT ttl 255 id 0 protocol 17 offset (bytes) 0 flags [none] length: 112 10.0.5.1 > 10.0.5.2) ns3::UdpHeader (length: 92 520 > 520) ns3::RipHeader (command 2 | prefix 10.0.1.0/24 Metric 1 Tag 0 Next Hop 0.0.0.0 | prefix 10.0.3.0/24 Metric 1 Tag 0 Next Hop 0.0.0.0 | prefix 10.0.5.0/24 Metric 16 Tag 0 Next Hop 0.0.0.0 | prefix 10.0.7.0/24 Metric 1 Tag 0 Next Hop 0.0.0.0) ns3::EthernetTrailer (fcs=0)
- 0.376904 /NodeList/3/DeviceList/2/$ns3::CsmaNetDevice/TxQueue/Dequeue ns3::EthernetHeader ( length/type=0x800, source=00:00:00:00:00:0b, destination=00:00:00:00:00:0c) ns3::Ipv4Header (tos 0x0 DSCP Default ECN Not-ECT ttl 255 id 0 protocol 17 offset (bytes) 0 flags [none] length: 112 10.0.5.1 > 10.0.5.2) ns3::UdpHeader (length: 92 520 > 520) ns3::RipHeader (command 2 | prefix 10.0.1.0/24 Metric 1 Tag 0 Next Hop 0.0.0.0 | prefix 10.0.3.0/24 Metric 1 Tag 0 Next Hop 0.0.0.0 | prefix 10.0.5.0/24 Metric 16 Tag 0 Next Hop 0.0.0.0 | prefix 10.0.7.0/24 Metric 1 Tag 0 Next Hop 0.0.0.0) ns3::EthernetTrailer (fcs=0)
r 0.377904 /NodeList/4/DeviceList/2/$ns3::CsmaNetDevice/MacRx ns3::EthernetHeader ( length/type=0x806, source=00:00:00:00:00:0a, destination=00:00:00:00:00:09) ns3::ArpHeader (reply source mac: 00-06-00:00:00:00:00:0a source ipv4: 10.0.4.2 dest mac: 00-06-00:00:00:00:00:09 dest ipv4: 10.0.4.1) Payload (size=18) ns3::EthernetTrailer (fcs=0)
+ 0.377904 /NodeList/4/DeviceList/2/$ns3::CsmaNetDevice/TxQueue/Enqueue ns3::EthernetHeader ( length/type=0x800, source=00:00:00:00:00:09, destination=00:00:00:00:00:0a) ns3::Ipv4Header (tos 0x0 DSCP Default ECN Not-ECT ttl 255 id 0 protocol 17 offset (bytes) 0 flags [none] length: 92 10.0.4.1 > 10.0.4.2) ns3::UdpHeader (length: 72 520 > 520) ns3::RipHeader (command 2 | prefix 10.0.2.0/24 Metric 1 Tag 0 Next Hop 0.0.0.0 | prefix 10.0.3.0/24 Metric 1 Tag 0 Next Hop 0.0.0.0 | prefix 10.0.4.0/24 Metric 16 Tag 0 Next Hop 0.0.0.0) ns3::EthernetTrailer (fcs=0)
- 0.377904 /NodeList/4/DeviceList/2/$ns3::CsmaNetDevice/TxQueue/Dequeue ns3::EthernetHeader ( length/type=0x800, source=00:00:00:00:00:09, destination=00:00:00:00:00:0a) ns3::Ipv4Header (tos 0x0 DSCP Default ECN Not-ECT ttl 255 id 0 protocol 17 offset (bytes) 0 flags [none] length: 92 10.0.4.1 > 10.0.4.2) ns3::UdpHeader (length: 72 520 > 520) ns3::RipHeader (command 2 | prefix 10.0.2.0/24 Metric 1 Tag 0 Next Hop 0.0.0.0 | prefix 10.0.3.0/24 Metric 1 Tag 0 Next Hop 0.0.0.0 | prefix 10.0.4.0/24 Metric 16 Tag 0 Next Hop 0.0.0.0) ns3::EthernetTrailer (fcs=0)
+ 0.378698 /NodeList/6/DeviceList/1/$ns3::CsmaNetDevice/TxQueue/Enqueue ns3::EthernetHeader ( length/type=0x806, source=00:00:00:00:00:12, destination=ff:ff:ff:ff:ff:ff) ns3::ArpHeader (request source mac: 00-06-00:00:00:00:00:12 source ipv4: 10.0.8.2 dest ipv4: 10.0.8.1) Payload (size=18) ns3::EthernetTrailer (fcs=0)
- 0.378698 /NodeList/6/DeviceList/1/$ns3::CsmaNetDevice/TxQueue/Dequeue ns3::EthernetHeader ( length/type=0x806, source=00:00:00:00:00:12, destination=ff:ff:ff:ff:ff:ff) ns3::ArpHeader (request source mac: 00-06-00:00:00:00:00:12 source ipv4: 10.0.8.2 dest ipv4: 10.0.8.1) Payload (size=18) ns3::EthernetTrailer (fcs=0)
r 0.379113 /NodeList/5/DeviceList/1/$ns3::CsmaNetDevice/MacRx ns3::EthernetHeader ( length/type=0x800, source=00:00:00:00:00:0b, destination=00:00:00:00:00:0c) ns3::Ipv4Header (tos 0x0 DSCP Default ECN Not-ECT ttl 255 id 0 protocol 17 offset (bytes) 0 flags [none] length: 112 10.0.5.1 > 10.0.5.2) ns3::UdpHeader (length: 92 520 > 520) ns3::RipHeader (command 2 | prefix 10.0.1.0/24 Metric 1 Tag 0 Next Hop 0.0.0.0 | prefix 10.0.3.0/24 Metric 1 Tag 0 Next Hop 0.0.0.0 | prefix 10.0.5.0/24 Metric 16 Tag 0 Next Hop 0.0.0.0 | prefix 10.0.7.0/24 Metric 1 Tag 0 Next Hop 0.0.0.0) ns3::EthernetTrailer (fcs=0)
r 0.380081 /NodeList/5/DeviceList/0/$ns3::CsmaNetDevice/MacRx ns3::EthernetHeader ( length/type=0x800, source=00:00:00:00:00:09, destination=00:00:00:00:00:0a) ns3::Ipv4Header (tos 0x0 DSCP Default ECN Not-ECT ttl 255 id 0 protocol 17 offset (bytes) 0 flags [none] length: 92 10.0.4.1 > 10.0.4.2) ns3::UdpHeader (length: 72 520 > 520) ns3::RipHeader (command 2 | prefix 10.0.2.0/24 Metric 1 Tag 0 Next Hop 0.0.0.0 | prefix 10.0.3.0/24 Metric 1 Tag 0 Next Hop 0.0.0.0 | prefix 10.0.4.0/24 Metric 16 Tag 0 Next Hop 0.0.0.0) ns3::EthernetTrailer (fcs=0)
r 0.3808 /NodeList/5/DeviceList/3/$ns3::CsmaNetDevice/MacRx ns3::EthernetHeader ( length/type=0x806, source=00:00:00:00:00:12, destination=ff:ff:ff:ff:ff:ff) ns3::ArpHeader (request source mac: 00-06-00:00:00:00:00:12 source ipv4: 10.0.8.2 dest ipv4: 10.0.8.1) Payload (size=18) ns3::EthernetTrailer (fcs=0)
+ 0.3808 /NodeList/5/DeviceList/3/$ns3::CsmaNetDevice/TxQueue/Enqueue ns3::EthernetHeader ( length/type=0x806, source=00:00:00:00:00:11, destination=00:00:00:00:00:12) ns3::ArpHeader (reply source mac: 00-06-00:00:00:00:00:11 source ipv4: 10.0.8.1 dest mac: 00-06-00:00:00:00:00:12 dest ipv4: 10.0.8.2) Payload (size=18) ns3::EthernetTrailer (fcs=0)
- 0.3808 /NodeList/5/DeviceList/3/$ns3::CsmaNetDevice/TxQueue/Dequeue ns3::EthernetHeader ( length/type=0x806, source=00:00:00:00:00:11, destination=00:00:00:00:00:12) ns3::ArpHeader (reply source mac: 00-06-00:00:00:00:00:11 source ipv4: 10.0.8.1 dest mac: 00-06-00:00:00:00:00:12 dest ipv4: 10.0.8.2) Payload (size=18) ns3::EthernetTrailer (fcs=0)
r 0.382904 /NodeList/6/DeviceList/1/$ns3::CsmaNetDevice/MacRx ns3::EthernetHeader ( length/type=0x806, source=00:00:00:00:00:11, destination=00:00:00:00:00:12) ns3::ArpHeader (reply source mac: 00-06-00:00:00:00:00:11 source ipv4: 10.0.8.1 dest mac: 00-06-00:00:00:00:00:12 dest ipv4: 10.0.8.2) Payload (size=18) ns3::EthernetTrailer (fcs=0)
+ 0.382904 /NodeList/6/DeviceList/1/$ns3::CsmaNetDevice/TxQueue/Enqueue ns3::EthernetHeader ( length/type=0x800, source=00:00:00:00:00:12, destination=00:00:00:00:00:11) ns3::Ipv4Header (tos 0x0 DSCP Default ECN Not-ECT ttl 255 id 0 protocol 17 offset (bytes) 0 flags [none] length: 72 10.0.8.2 > 10.0.8.1) ns3::UdpHeader (length: 52 520 > 520) ns3::RipHeader (command 2 | prefix 10.0.7.0/24 Metric 1 Tag 0 Next Hop 0.0.0.0 | prefix 10.0.8.0/24 Metric 16 Tag 0 Next Hop 0.0.0.0) ns3::EthernetTrailer (fcs=0)
- 0.382904 /NodeList/6/DeviceList/1/$ns3::CsmaNetDevice/TxQueue/Dequeue ns3::EthernetHeader ( length/type=0x800, source=00:00:00:00:00:12, destination=00:00:00:00:00:11) ns3::Ipv4Header (tos 0x0 DSCP Default ECN Not-ECT ttl 255 id 0 protocol 17 offset (bytes) 0 flags [none] length: 72 10.0.8.2 > 10.0.8.1) ns3::UdpHeader (length: 52 520 > 520) ns3::RipHeader (command 2 | prefix 10.0.7.0/24 Metric 1 Tag 0 Next Hop 0.0.0.0 | prefix 10.0.8.0/24 Metric 16 Tag 0 Next Hop 0.0.0.0) ns3::EthernetTrailer (fcs=0)
r 0.385049 /NodeList/5/DeviceList/3/$ns3::CsmaNetDevice/MacRx ns3::EthernetHeader ( length/type=0x800, source=00:00:00:00:00:12, destination=00:00:00:00:00:11) ns3::Ipv4Header (tos 0x0 DSCP Default ECN Not-ECT ttl 255 id 0 protocol 17 offset (bytes) 0 flags [none] length: 72 10.0.8.2 > 10.0.8.1) ns3::UdpHeader (length: 52 520 > 520) ns3::RipHeader (command 2 | prefix 10.0.7.0/24 Metric 1 Tag 0 Next Hop 0.0.0.0 | prefix 10.0.8.0/24 Metric 16 Tag 0 Next Hop 0.0.0.0) ns3::EthernetTrailer (fcs=0)
+ 0.483264 /NodeList/2/DeviceList/1/$ns3::CsmaNetDevice/TxQueue/Enqueue ns3::EthernetHeader ( length/type=0x800, source=00:00:00:00:00:03, destination=01:00:5e:00:00:09) ns3::Ipv4Header (tos 0x0 DSCP Default ECN Not-ECT ttl 1 id 0 protocol 17 offset (bytes) 0 flags [none] length: 52 10.0.1.1 > 224.0.0.9) ns3::UdpHeader (length: 32 520 > 520) ns3::RipHeader (command 1 | prefix 0.0.0.0/0 Metric 16 Tag 0 Next Hop 0.0.0.0) ns3::EthernetTrailer (fcs=0)
- 0.483264 /NodeList/2/DeviceList/1/$ns3::CsmaNetDevice/TxQueue/Dequeue ns3::EthernetHeader ( length/type=0x800, source=00:00:00:00:00:03, destination=01:00:5e:00:00:09) ns3::Ipv4Header (tos 0x0 DSCP Default ECN Not-ECT ttl 1 id 0 protocol 17 offset (bytes) 0 flags [none] length: 52 10.0.1.1 > 224.0.0.9) ns3::UdpHeader (length: 32 520 > 520) ns3::RipHeader (command 1 | prefix 0.0.0.0/0 Metric 16 Tag 0 Next Hop 0.0.0.0) ns3::EthernetTrailer (fcs=0)
+ 0.483264 /NodeList/2/DeviceList/2/$ns3::CsmaNetDevice/TxQueue/Enqueue ns3::EthernetHeader ( length/type=0x800, source=00:00:00:00:00:05, destination=01:00:5e:00:00:09) ns3::Ipv4Header (tos 0x0 DSCP Default ECN Not-ECT ttl 1 id 0 protocol 17 offset (bytes) 0 flags [none] length: 52 10.0.2.1 > 224.0.0.9) ns3::UdpHeader (length: 32 520 > 520) ns3::RipHeader (command 1 | prefix 0.0.0.0/0 Metric 16 Tag 0 Next Hop 0.0.0.0) ns3::EthernetTrailer (fcs=0)
- 0.483264 /NodeList/2/DeviceList/2/$ns3::CsmaNetDevice/TxQueue/Dequeue ns3::EthernetHeader ( length/type=0x800, source=00:00:00:00:00:05, destination=01:00:5e:00:00:09) ns3::Ipv4Header (tos 0x0 DSCP Default ECN Not-ECT ttl 1 id 0 protocol 17 offset (bytes) 0 flags [none] length: 52 10.0.2.1 > 224.0.0.9) ns3::UdpHeader (length: 32 520 > 520) ns3::RipHeader (command 1 | prefix 0.0.0.0/0 Metric 16 Tag 0 Next Hop 0.0.0.0) ns3::EthernetTrailer (fcs=0)
r 0.485376 /NodeList/3/DeviceList/0/$ns3::CsmaNetDevice/MacRx ns3::EthernetHeader ( length/type=0x800, source=00:00:00:00:00:03, destination=01:00:5e:00:00:09) ns3::Ipv4Header (tos 0x0 DSCP Default ECN Not-ECT ttl 1 id 0 protocol 17 offset (bytes) 0 flags [none] length: 52 10.0.1.1 > 224.0.0.9) ns3::UdpHeader (length: 32 520 > 520) ns3::RipHeader (command 1 | prefix 0.0.0.0/0 Metric 16 Tag 0 Next Hop 0.0.0.0) ns3::EthernetTrailer (fcs=0)
r 0.485376 /NodeList/4/DeviceList/0/$ns3::CsmaNetDevice/MacRx ns3::EthernetHeader ( length/type=0x800, source=00:00:00:00:00:05, destination=01:00:5e:00:00:09) ns3::Ipv4Header (tos 0x0 DSCP Default ECN Not-ECT ttl 1 id 0 protocol 17 offset (bytes) 0 flags [none] length: 52 10.0.2.1 > 224.0.0.9) ns3::UdpHeader (length: 32 520 > 520) ns3::RipHeader (command 1 | prefix 0.0.0.0/0 Metric 16 Tag 0 Next Hop 0.0.0.0) ns3::EthernetTrailer (fcs=0)
+ 0.485376 /NodeList/3/DeviceList/0/$ns3::CsmaNetDevice/TxQueue/Enqueue ns3::EthernetHeader ( length/type=0x806, source=00:00:00:00:00:04, destination=ff:ff:ff:ff:ff:ff) ns3::ArpHeader (request source mac: 00-06-00:00:00:00:00:04 source ipv4: 10.0.1.2 dest ipv4: 10.0.1.1) Payload (size=18) ns3::EthernetTrailer (fcs=0)
- 0.485376 /NodeList/3/DeviceList/0/$ns3::CsmaNetDevice/TxQueue/Dequeue ns3::EthernetHeader ( length/type=0x806, source=00:00:00:00:00:04, destination=ff:ff:ff:ff:ff:ff) ns3::ArpHeader (request source mac: 00-06-00:00:00:00:00:04 source ipv4: 10.0.1.2 dest ipv4: 10.0.1.1) Payload (size=18) ns3::EthernetTrailer (fcs=0)
r 0.487478 /NodeList/2/DeviceList/1/$ns3::CsmaNetDevice/MacRx ns3::EthernetHeader ( length/type=0x806, source=00:00:00:00:00:04, destination=ff:ff:ff:ff:ff:ff) ns3::ArpHeader (request source mac: 00-06-00:00:00:00:00:04 source ipv4: 10.0.1.2 dest ipv4: 10.0.1.1) Payload (size=18) ns3::EthernetTrailer (fcs=0)
+ 0.487478 /NodeList/2/DeviceList/1/$ns3::CsmaNetDevice/TxQueue/Enqueue ns3::EthernetHeader ( length/type=0x806, source=00:00:00:00:00:03, destination=00:00:00:00:00:04) ns3::ArpHeader (reply source mac: 00-06-00:00:00:00:00:03 source ipv4: 10.0.1.1 dest mac: 00-06-00:00:00:00:00:04 dest ipv4: 10.0.1.2) Payload (size=18) ns3::EthernetTrailer (fcs=0)
- 0.487478 /NodeList/2/DeviceList/1/$ns3::CsmaNetDevice/TxQueue/Dequeue ns3::EthernetHeader ( length/type=0x806, source=00:00:00:00:00:03, destination=00:00:00:00:00:04) ns3::ArpHeader (reply source mac: 00-06-00:00:00:00:00:03 source ipv4: 10.0.1.1 dest mac: 00-06-00:00:00:00:00:04 dest ipv4: 10.0.1.2) Payload (size=18) ns3::EthernetTrailer (fcs=0)
+ 0.489376 /NodeList/4/DeviceList/0/$ns3::CsmaNetDevice/TxQueue/Enqueue ns3::EthernetHeader ( length/type=0x806, source=00:00:00:00:00:06, destination=ff:ff:ff:ff:ff:ff) ns3::ArpHeader (request source mac: 00-06-00:00:00:00:00:06 source ipv4: 10.0.2.2 dest ipv4: 10.0.2.1) Payload (size=18) ns3::EthernetTrailer (fcs=0)
- 0.489376 /NodeList/4/DeviceList/0/$ns3::CsmaNetDevice/TxQueue/Dequeue ns3::EthernetHeader ( length/type=0x806, source=00:00:00:00:00:06, destination=ff:ff:ff:ff:ff:ff) ns3::ArpHeader (request source mac: 00-06-00:00:00:00:00:06 source ipv4: 10.0.2.2 dest ipv4: 10.0.2.1) Payload (size=18) ns3::EthernetTrailer (fcs=0)
r 0.489581 /NodeList/3/DeviceList/0/$ns3::CsmaNetDevice/MacRx ns3::EthernetHeader ( length/type=0x806, source=00:00:00:00:00:03, destination=00:00:00:00:00:04) ns3::ArpHeader (reply source mac: 00-06-00:00:00:00:00:03 source ipv4: 10.0.1.1 dest mac: 00-06-00:00:00:00:00:04 dest ipv4: 10.0.1.2) Payload (size=18) ns3::EthernetTrailer (fcs=0)
+ 0.489581 /NodeList/3/DeviceList/0/$ns3::CsmaNetDevice/TxQueue/Enqueue ns3::EthernetHeader ( length/type=0x800, source=00:00:00:00:00:04, destination=00:00:00:00:00:03) ns3::Ipv4Header (tos 0x0 DSCP Default ECN Not-ECT ttl 255 id 0 protocol 17 offset (bytes) 0 flags [none] length: 112 10.0.1.2 > 10.0.1.1) ns3::UdpHeader (length: 92 520 > 520) ns3::RipHeader (command 2 | prefix 10.0.1.0/24 Metric 16 Tag 0 Next Hop 0.0.0.0 | prefix 10.0.3.0/24 Metric 1 Tag 0 Next Hop 0.0.0.0 | prefix 10.0.5.0/24 Metric 1 Tag 0 Next Hop 0.0.0.0 | prefix 10.0.7.0/24 Metric 1 Tag 0 Next Hop 0.0.0.0) ns3::EthernetTrailer (fcs=0)
- 0.489581 /NodeList/3/DeviceList/0/$ns3::CsmaNetDevice/TxQueue/Dequeue ns3::EthernetHeader ( length/type=0x800, source=00:00:00:00:00:04, destination=00:00:00:00:00:03) ns3::Ipv4Header (tos 0x0 DSCP Default ECN Not-ECT ttl 255 id 0 protocol 17 offset (bytes) 0 flags [none] length: 112 10.0.1.2 > 10.0.1.1) ns3::UdpHeader (length: 92 520 > 520) ns3::RipHeader (command 2 | prefix 10.0.1.0/24 Metric 16 Tag 0 Next Hop 0.0.0.0 | prefix 10.0.3.0/24 Metric 1 Tag 0 Next Hop 0.0.0.0 | prefix 10.0.5.0/24 Metric 1 Tag 0 Next Hop 0.0.0.0 | prefix 10.0.7.0/24 Metric 1 Tag 0 Next Hop 0.0.0.0) ns3::EthernetTrailer (fcs=0)
r 0.491478 /NodeList/2/DeviceList/2/$ns3::CsmaNetDevice/MacRx ns3::EthernetHeader ( length/type=0x806, source=00:00:00:00:00:06, destination=ff:ff:ff:ff:ff:ff) ns3::ArpHeader (request source mac: 00-06-00:00:00:00:00:06 source ipv4: 10.0.2.2 dest ipv4: 10.0.2.1) Payload (size=18) ns3::EthernetTrailer (fcs=0)
+ 0.491478 /NodeList/2/DeviceList/2/$ns3::CsmaNetDevice/TxQueue/Enqueue ns3::EthernetHeader ( length/type=0x806, source=00:00:00:00:00:05, destination=00:00:00:00:00:06) ns3::ArpHeader (reply source mac: 00-06-00:00:00:00:00:05 source ipv4: 10.0.2.1 dest mac: 00-06-00:00:00:00:00:06 dest ipv4: 10.0.2.2) Payload (size=18) ns3::EthernetTrailer (fcs=0)
- 0.491478 /NodeList/2/DeviceList/2/$ns3::CsmaNetDevice/TxQueue/Dequeue ns3::EthernetHeader ( length/type=0x806, source=00:00:00:00:00:05, destination=00:00:00:00:00:06) ns3::ArpHeader (reply source mac: 00-06-00:00:00:00:00:05 source ipv4: 10.0.2.1 dest mac: 00-06-00:00:00:00:00:06 dest ipv4: 10.0.2.2) Payload (size=18) ns3::EthernetTrailer (fcs=0)
r 0.49179 /NodeList/2/DeviceList/1/$ns3::CsmaNetDevice/MacRx ns3::EthernetHeader ( length/type=0x800, source=00:00:00:00:00:04, destination=00:00:00:00:00:03) ns3::Ipv4Header (tos 0x0 DSCP Default ECN Not-ECT ttl 255 id 0 protocol 17 offset (bytes) 0 flags [none] length: 112 10.0.1.2 > 10.0.1.1) ns3::UdpHeader (length: 92 520 > 520) ns3::RipHeader (command 2 | prefix 10.0.1.0/24 Metric 16 Tag 0 Next Hop 0.0.0.0 | prefix 10.0.3.0/24 Metric 1 Tag 0 Next Hop 0.0.0.0 | prefix 10.0.5.0/24 Metric 1 Tag 0 Next Hop 0.0.0.0 | prefix 10.0.7.0/24 Metric 1 Tag 0 Next Hop 0.0.0.0) ns3::EthernetTrailer (fcs=0)
r 0.493581 /NodeList/4/DeviceList/0/$ns3::CsmaNetDevice/MacRx ns3::EthernetHeader ( length/type=0x806, source=00:00:00:00:00:05, destination=00:00:00:00:00:06) ns3::ArpHeader (reply source mac: 00-06-00:00:00:00:00:05 source ipv4: 10.0.2.1 dest mac: 00-06-00:00:00:00:00:06 dest ipv4: 10.0.2.2) Payload (size=18) ns3::EthernetTrailer (fcs=0)
+ 0.493581 /NodeList/4/DeviceList/0/$ns3::CsmaNetDevice/TxQueue/Enqueue ns3::EthernetHeader ( length/type=0x800, source=00:00:00:00:00:06, destination=00:00:00:00:00:05) ns3::Ipv4Header (tos 0x0 DSCP Default ECN Not-ECT ttl 255 id 0 protocol 17 offset (bytes) 0 flags [none] length: 92 10.0.2.2 > 10.0.2.1) ns3::UdpHeader (length: 72 520 > 520) ns3::RipHeader (command 2 | prefix 10.0.2.0/24 Metric 16 Tag 0 Next Hop 0.0.0.0 | prefix 10.0.3.0/24 Metric 1 Tag 0 Next Hop 0.0.0.0 | prefix 10.0.4.0/24 Metric 1 Tag 0 Next Hop 0.0.0.0) ns3::EthernetTrailer (fcs=0)
- 0.493581 /NodeList/4/DeviceList/0/$ns3::CsmaNetDevice/TxQueue/Dequeue ns3::EthernetHeader ( length/type=0x800, source=00:00:00:00:00:06, destination=00:00:00:00:00:05) ns3::Ipv4Header (tos 0x0 DSCP Default ECN Not-ECT ttl 255 id 0 protocol 17 offset (bytes) 0 flags [none] length: 92 10.0.2.2 > 10.0.2.1) ns3::UdpHeader (length: 72 520 > 520) ns3::RipHeader (command 2 | prefix 10.0.2.0/24 Metric 16 Tag 0 Next Hop 0.0.0.0 | prefix 10.0.3.0/24 Metric 1 Tag 0 Next Hop 0.0.0.0 | prefix 10.0.4.0/24 Metric 1 Tag 0 Next Hop 0.0.0.0) ns3::EthernetTrailer (fcs=0)
r 0.495758 /NodeList/2/DeviceList/2/$ns3::CsmaNetDevice/MacRx ns3::EthernetHeader ( length/type=0x800, source=00:00:00:00:00:06, destination=00:00:00:00:00:05) ns3::Ipv4Header (tos 0x0 DSCP Default ECN Not-ECT ttl 255 id 0 protocol 17 offset (bytes) 0 flags [none] length: 92 10.0.2.2 > 10.0.2.1) ns3::UdpHeader (length: 72 520 > 520) ns3::RipHeader (command 2 | prefix 10.0.2.0/24 Metric 16 Tag 0 Next Hop 0.0.0.0 | prefix 10.0.3.0/24 Metric 1 Tag 0 Next Hop 0.0.0.0 | prefix 10.0.4.0/24 Metric 1 Tag 0 Next Hop 0.0.0.0) ns3::EthernetTrailer (fcs=0)
+ 0.536659 /NodeList/4/DeviceList/0/$ns3::CsmaNetDevice/TxQueue/Enqueue ns3::EthernetHeader ( length/type=0x800, source=00:00:00:00:00:06, destination=01:00:5e:00:00:09) ns3::Ipv4Header (tos 0x0 DSCP Default ECN Not-ECT ttl 1 id 0 protocol 17 offset (bytes) 0 flags [none] length: 52 10.0.2.2 > 224.0.0.9) ns3::UdpHeader (length: 32 520 > 520) ns3::RipHeader (command 1 | prefix 0.0.0.0/0 Metric 16 Tag 0 Next Hop 0.0.0.0) ns3::EthernetTrailer (fcs=0)
- 0.536659 /NodeList/4/DeviceList/0/$ns3::CsmaNetDevice/TxQueue/Dequeue ns3::EthernetHeader ( length/type=0x800, source=00:00:00:00:00:06, destination=01:00:5e:00:00:09) ns3::Ipv4Header (tos 0x0 DSCP Default ECN Not-ECT ttl 1 id 0 protocol 17 offset (bytes) 0 flags [none] length: 52 10.0.2.2 > 224.0.0.9) ns3::UdpHeader (length: 32 520 > 520) ns3::RipHeader (command 1 | prefix 0.0.0.0/0 Metric 16 Tag 0 Next Hop 0.0.0.0) ns3::EthernetTrailer (fcs=0)
+ 0.536659 /NodeList/4/DeviceList/1/$ns3::CsmaNetDevice/TxQueue/Enqueue ns3::EthernetHeader ( length/type=0x800, source=00:00:00:00:00:08, destination=01:00:5e:00:00:09) ns3::Ipv4Header (tos 0x0 DSCP Default ECN Not-ECT ttl 1 id 0 protocol 17 offset (bytes) 0 flags [none] length: 52 10.0.3.2 > 224.0.0.9) ns3::UdpHeader (length: 32 520 > 520) ns3::RipHeader (command 1 | prefix 0.0.0.0/0 Metric 16 Tag 0 Next Hop 0.0.0.0) ns3::EthernetTrailer (fcs=0)
- 0.536659 /NodeList/4/DeviceList/1/$ns3::CsmaNetDevice/TxQueue/Dequeue ns3::EthernetHeader ( length/type=0x800, source=00:00:00:00:00:08, destination=01:00:5e:00:00:09) ns3::Ipv4Header (tos 0x0 DSCP Default ECN Not-ECT ttl 1 id 0 protocol 17 offset (bytes) 0 flags [none] length: 52 10.0.3.2 > 224.0.0.9) ns3::UdpHeader (length: 32 520 > 520) ns3::RipHeader (command 1 | prefix 0.0.0.0/0 Metric 16 Tag 0 Next Hop 0.0.0.0) ns3::EthernetTrailer (fcs=0)
+ 0.536659 /NodeList/4/DeviceList/2/$ns3::CsmaNetDevice/TxQueue/Enqueue ns3::EthernetHeader ( length/type=0x800, source=00:00:00:00:00:09, destination=01:00:5e:00:00:09) ns3::Ipv4Header (tos 0x0 DSCP Default ECN Not-ECT ttl 1 id 0 protocol 17 offset (bytes) 0 flags [none] length: 52 10.0.4.1 > 224.0.0.9) ns3::UdpHeader (length: 32 520 > 520) ns3::RipHeader (command 1 | prefix 0.0.0.0/0 Metric 16 Tag 0 Next Hop 0.0.0.0) ns3::EthernetTrailer (fcs=0)
- 0.536659 /NodeList/4/DeviceList/2/$ns3::CsmaNetDevice/TxQueue/Dequeue ns3::EthernetHeader ( length/type=0x800, source=00:00:00:00:00:09, destination=01:00:5e:00:00:09) ns3::Ipv4Header (tos 0x0 DSCP Default ECN Not-ECT ttl 1 id 0 protocol 17 offset (bytes) 0 flags [none] length: 52 10.0.4.1 > 224.0.0.9) ns3::UdpHeader (length: 32 520 > 520) ns3::RipHeader (command 1 | prefix 0.0.0.0/0 Metric 16 Tag 0 Next Hop 0.0.0.0) ns3::EthernetTrailer (fcs=0)
r 0.538771 /NodeList/2/DeviceList/2/$ns3::CsmaNetDevice/MacRx ns3::EthernetHeader ( length/type=0x800, source=00:00:00:00:00:06, destination=01:00:5e:00:00:09) ns3::Ipv4Header (tos 0x0 DSCP Default ECN Not-ECT ttl 1 id 0 protocol 17 offset (bytes) 0 flags [none] length: 52 10.0.2.2 > 224.0.0.9) ns3::UdpHeader (length: 32 520 > 520) ns3::RipHeader (command 1 | prefix 0.0.0.0/0 Metric 16 Tag 0 Next Hop 0.0.0.0) ns3::EthernetTrailer (fcs=0)
r 0.538771 /NodeList/3/DeviceList/1/$ns3::CsmaNetDevice/MacRx ns3::EthernetHeader ( length/type=0x800, source=00:00:00:00:00:08, destination=01:00:5e:00:00:09) ns3::Ipv4Header (tos 0x0 DSCP Default ECN Not-ECT ttl 1 id 0 protocol 17 offset (bytes) 0 flags [none] length: 52 10.0.3.2 > 224.0.0.9) ns3::UdpHeader (length: 32 520 > 520) ns3::RipHeader (command 1 | prefix 0.0.0.0/0 Metric 16 Tag 0 Next Hop 0.0.0.0) ns3::EthernetTrailer (fcs=0)
r 0.538771 /NodeList/5/DeviceList/0/$ns3::CsmaNetDevice/MacRx ns3::EthernetHeader ( length/type=0x800, source=00:00:00:00:00:09, destination=01:00:5e:00:00:09) ns3::Ipv4Header (tos 0x0 DSCP Default ECN Not-ECT ttl 1 id 0 protocol 17 offset (bytes) 0 flags [none] length: 52 10.0.4.1 > 224.0.0.9) ns3::UdpHeader (length: 32 520 > 520) ns3::RipHeader (command 1 | prefix 0.0.0.0/0 Metric 16 Tag 0 Next Hop 0.0.0.0) ns3::EthernetTrailer (fcs=0)
+ 0.538771 /NodeList/3/DeviceList/1/$ns3::CsmaNetDevice/TxQueue/Enqueue ns3::EthernetHeader ( length/type=0x806, source=00:00:00:00:00:07, destination=ff:ff:ff:ff:ff:ff) ns3::ArpHeader (request source mac: 00-06-00:00:00:00:00:07 source ipv4: 10.0.3.1 dest ipv4: 10.0.3.2) Payload (size=18) ns3::EthernetTrailer (fcs=0)
- 0.538771 /NodeList/3/DeviceList/1/$ns3::CsmaNetDevice/TxQueue/Dequeue ns3::EthernetHeader ( length/type=0x806, source=00:00:00:00:00:07, destination=ff:ff:ff:ff:ff:ff) ns3::ArpHeader (request source mac: 00-06-00:00:00:00:00:07 source ipv4: 10.0.3.1 dest ipv4: 10.0.3.2) Payload (size=18) ns3::EthernetTrailer (fcs=0)